4
	Energy:       0.0541621
C         -1.02065        0.77629       -0.00000
O         -0.83412        1.98663        0.00000
H         -1.48822        0.25376        0.84976
H         -0.73210        0.13723       -0.84976
